# vtk DataFile Version 2.0
Test data
ASCII
DATASET STRUCTURED_POINTS
DIMENSIONS 8 8 13
SPACING 1.000000 1.000000 1.000000
ORIGIN 0.000000 0.000000 0.000000
POINT_DATA 832
SCALARS volume_scalars float 1
LOOKUP_TABLE default
2.000000 1.000000 2.000000 11.000000 7.000000 9.000000 8.000000 9.000000 1.000000 8.000000 5.000000 6.000000 4.000000 6.000000 3.000000 7.000000 1.000000 2.000000 4.000000 8.000000 11.000000 9.000000 10.000000 7.000000 10.000000 1.000000 9.000000 7.000000 4.000000 4.000000 6.000000 7.000000 11.000000 2.000000 6.000000 3.000000 5.000000 4.000000 2.000000 2.000000 4.000000 1.000000 1.000000 9.000000 9.000000 4.000000 5.000000 4.000000 5.000000 1.000000 1.000000 2.000000 9.000000 6.000000 2.000000 4.000000 3.000000 6.000000 4.000000 9.000000 11.000000 2.000000 9.000000 3.000000 2.000000 6.000000 11.000000 5.000000 5.000000 1.000000 10.000000 2.000000 9.000000 6.000000 9.000000 9.000000 6.000000 4.000000 3.000000 7.000000 3.000000 3.000000 3.000000 3.000000 2.000000 11.000000 9.000000 7.000000 2.000000 9.000000 11.000000 9.000000 3.000000 8.000000 8.000000 1.000000 1.000000 3.000000 5.000000 1.000000 2.000000 3.000000 6.000000 5.000000 10.000000 4.000000 10.000000 2.000000 8.000000 2.000000 8.000000 4.000000 11.000000 2.000000 5.000000 6.000000 9.000000 8.000000 3.000000 10.000000 10.000000 1.000000 4.000000 4.000000 4.000000 11.000000 7.000000 9.000000 4.000000 6.000000 9.000000 10.000000 3.000000 11.000000 3.000000 9.000000 3.000000 11.000000 8.000000 3.000000 7.000000 5.000000 5.000000 4.000000 7.000000 10.000000 3.000000 7.000000 9.000000 8.000000 3.000000 9.000000 11.000000 5.000000 3.000000 1.000000 11.000000 5.000000 9.000000 1.000000 11.000000 1.000000 11.000000 7.000000 11.000000 3.000000 11.000000 6.000000 9.000000 5.000000 3.000000 1.000000 3.000000 8.000000 10.000000 8.000000 8.000000 1.000000 10.000000 6.000000 11.000000 4.000000 2.000000 10.000000 11.000000 5.000000 1.000000 8.000000 4.000000 10.000000 10.000000 2.000000 1.000000 8.000000 11.000000 10.000000 2.000000 1.000000 9.000000 10.000000 10.000000 10.000000 4.000000 10.000000 4.000000 5.000000 1.000000 9.000000 9.000000 11.000000 6.000000 1.000000 10.000000 6.000000 11.000000 2.000000 11.000000 10.000000 1.000000 2.000000 4.000000 1.000000 7.000000 7.000000 7.000000 8.000000 11.000000 11.000000 4.000000 1.000000 9.000000 3.000000 2.000000 11.000000 3.000000 5.000000 5.000000 1.000000 5.000000 2.000000 9.000000 8.000000 10.000000 9.000000 6.000000 3.000000 10.000000 4.000000 9.000000 3.000000 11.000000 9.000000 3.000000 1.000000 1.000000 2.000000 2.000000 8.000000 5.000000 7.000000 10.000000 11.000000 3.000000 6.000000 2.000000 3.000000 10.000000 10.000000 3.000000 4.000000 2.000000 5.000000 11.000000 11.000000 1.000000 3.000000 5.000000 7.000000 3.000000 9.000000 5.000000 9.000000 11.000000 6.000000 10.000000 3.000000 9.000000 11.000000 9.000000 2.000000 4.000000 3.000000 11.000000 2.000000 4.000000 7.000000 11.000000 8.000000 11.000000 10.000000 4.000000 4.000000 3.000000 3.000000 9.000000 8.000000 4.000000 8.000000 3.000000 6.000000 8.000000 9.000000 6.000000 3.000000 9.000000 7.000000 8.000000 11.000000 4.000000 2.000000 1.000000 1.000000 1.000000 2.000000 1.000000 8.000000 10.000000 3.000000 4.000000 3.000000 2.000000 11.000000 8.000000 3.000000 5.000000 9.000000 11.000000 1.000000 4.000000 3.000000 3.000000 6.000000 5.000000 4.000000 1.000000 6.000000 9.000000 5.000000 9.000000 4.000000 11.000000 5.000000 2.000000 8.000000 7.000000 7.000000 3.000000 10.000000 2.000000 8.000000 6.000000 9.000000 11.000000 11.000000 11.000000 1.000000 10.000000 10.000000 3.000000 5.000000 7.000000 5.000000 3.000000 2.000000 11.000000 8.000000 5.000000 5.000000 11.000000 2.000000 1.000000 2.000000 6.000000 11.000000 4.000000 8.000000 11.000000 7.000000 1.000000 8.000000 9.000000 9.000000 1.000000 10.000000 2.000000 6.000000 10.000000 9.000000 8.000000 3.000000 6.000000 1.000000 2.000000 4.000000 7.000000 11.000000 1.000000 7.000000 1.000000 6.000000 6.000000 3.000000 7.000000 9.000000 9.000000 4.000000 11.000000 2.000000 4.000000 10.000000 9.000000 3.000000 9.000000 8.000000 6.000000 8.000000 1.000000 10.000000 11.000000 3.000000 10.000000 6.000000 4.000000 2.000000 10.000000 1.000000 7.000000 6.000000 5.000000 8.000000 8.000000 1.000000 11.000000 5.000000 9.000000 1.000000 5.000000 9.000000 9.000000 1.000000 5.000000 3.000000 3.000000 3.000000 4.000000 3.000000 4.000000 7.000000 4.000000 5.000000 4.000000 1.000000 3.000000 4.000000 3.000000 6.000000 6.000000 5.000000 10.000000 4.000000 11.000000 8.000000 11.000000 2.000000 5.000000 6.000000 7.000000 2.000000 4.000000 4.000000 11.000000 11.000000 10.000000 6.000000 2.000000 7.000000 7.000000 1.000000 8.000000 5.000000 9.000000 9.000000 3.000000 6.000000 2.000000 10.000000 11.000000 9.000000 5.000000 3.000000 9.000000 9.000000 6.000000 6.000000 8.000000 3.000000 1.000000 5.000000 4.000000 4.000000 3.000000 4.000000 5.000000 9.000000 11.000000 6.000000 10.000000 2.000000 9.000000 5.000000 6.000000 7.000000 10.000000 2.000000 6.000000 2.000000 4.000000 6.000000 3.000000 8.000000 4.000000 8.000000 2.000000 8.000000 10.000000 2.000000 2.000000 6.000000 3.000000 10.000000 5.000000 9.000000 10.000000 8.000000 1.000000 10.000000 7.000000 8.000000 11.000000 2.000000 5.000000 4.000000 2.000000 1.000000 6.000000 9.000000 9.000000 9.000000 9.000000 2.000000 9.000000 2.000000 4.000000 2.000000 10.000000 2.000000 6.000000 11.000000 6.000000 2.000000 3.000000 5.000000 7.000000 8.000000 1.000000 9.000000 8.000000 4.000000 9.000000 10.000000 6.000000 5.000000 8.000000 5.000000 7.000000 1.000000 9.000000 6.000000 6.000000 4.000000 11.000000 4.000000 3.000000 3.000000 3.000000 2.000000 3.000000 3.000000 8.000000 3.000000 3.000000 4.000000 5.000000 10.000000 11.000000 10.000000 8.000000 4.000000 4.000000 8.000000 6.000000 3.000000 11.000000 6.000000 9.000000 7.000000 3.000000 7.000000 2.000000 7.000000 10.000000 7.000000 8.000000 3.000000 2.000000 9.000000 2.000000 4.000000 10.000000 4.000000 8.000000 8.000000 6.000000 3.000000 11.000000 10.000000 8.000000 9.000000 6.000000 6.000000 5.000000 4.000000 10.000000 3.000000 3.000000 8.000000 3.000000 7.000000 1.000000 9.000000 2.000000 4.000000 3.000000 7.000000 9.000000 6.000000 9.000000 2.000000 8.000000 3.000000 6.000000 2.000000 6.000000 6.000000 9.000000 7.000000 7.000000 6.000000 2.000000 3.000000 3.000000 4.000000 1.000000 4.000000 5.000000 6.000000 4.000000 1.000000 9.000000 9.000000 5.000000 10.000000 5.000000 6.000000 1.000000 2.000000 11.000000 7.000000 1.000000 3.000000 3.000000 3.000000 7.000000 1.000000 1.000000 7.000000 5.000000 3.000000 8.000000 1.000000 11.000000 6.000000 9.000000 6.000000 10.000000 9.000000 4.000000 3.000000 8.000000 5.000000 10.000000 5.000000 6.000000 1.000000 10.000000 4.000000 7.000000 4.000000 9.000000 5.000000 6.000000 9.000000 3.000000 6.000000 2.000000 10.000000 3.000000 5.000000 2.000000 3.000000 5.000000 3.000000 2.000000 11.000000 2.000000 7.000000 2.000000 4.000000 11.000000 8.000000 1.000000 9.000000 9.000000 8.000000 6.000000 4.000000 3.000000 8.000000 10.000000 8.000000 6.000000 8.000000 5.000000 5.000000 4.000000 1.000000 10.000000 7.000000 1.000000 11.000000 2.000000 3.000000 11.000000 3.000000 1.000000 10.000000 2.000000 2.000000 2.000000 3.000000 10.000000 3.000000 4.000000 6.000000 3.000000 5.000000 1.000000 7.000000 2.000000 10.000000 10.000000 2.000000 6.000000 4.000000 2.000000 8.000000 3.000000 10.000000 10.000000 9.000000 7.000000 1.000000 2.000000 7.000000 9.000000 8.000000 2.000000 8.000000 11.000000 6.000000 8.000000 3.000000 3.000000 10.000000 2.000000 5.000000 4.000000 2.000000 9.000000 3.000000 9.000000 1.000000 6.000000 11.000000 5.000000 8.000000 4.000000 4.000000 9.000000 11.000000 3.000000 10.000000 7.000000 7.000000 6.000000 11.000000 1.000000 1.000000 4.000000 10.000000 7.000000 7.000000 